 Gaussian 16, Revision B.01,
 Gaussian 16:  ES64L-G16RevB.01 20-Dec-2017

 -----------------------------------------------------------
 # opt freq upbepbe/genecp scf=xqc empiricaldispersion=gd3bj
 -----------------------------------------------------------

 -------------------------------------------------
 1NH3 3H2O on Pd 2+ in Square Planar configuration
 -------------------------------------------------
 Symbolic Z-matrix:
 Charge =  2 Multiplicity = 1

 SCF Done:  E(UPBE-PBE) =  -412.907639951     A.U. after   14 cycles
 SCF Done:  E(UPBE-PBE) =  -412.907646243     A.U. after    8 cycles
 SCF Done:  E(UPBE-PBE) =  -412.907644493     A.U. after    8 cycles
 SCF Done:  E(UPBE-PBE) =  -412.907631953     A.U. after    9 cycles
 SCF Done:  E(UPBE-PBE) =  -412.907645659     A.U. after    9 cycles
 SCF Done:  E(UPBE-PBE) =  -412.907646361     A.U. after    7 cycles
 SCF Done:  E(UPBE-PBE) =  -412.907646538     A.U. after    7 cycles
 Optimization completed.
    -- Stationary point found.
 Normal termination of Gaussian 16 at Fri Aug 16 18:01:55 2024.

 -------------------------------------------------------------------
 #N Geom=AllCheck Guess=TCheck SCRF=Check GenChk UPBEPBE/GenECP Freq
 -------------------------------------------------------------------

 Structure from the checkpoint file:  "1_nh3_3_h2o.chk"
 -------------------------------------------------
 1NH3 3H2O on Pd 2+ in Square Planar configuration
 -------------------------------------------------
 Charge =  2 Multiplicity = 1

                         Standard orientation:
 ---------------------------------------------------------------------
 Center     Atomic      Atomic             Coordinates (Angstroms)
 Number     Number       Type             X           Y           Z
 ---------------------------------------------------------------------
      1         46           0        0.002845   -0.010531    0.005089
      2          8           0        1.530674   -1.395243   -0.008305
      3          1           0        1.586231   -2.000313   -0.779441
      4          1           0        1.654039   -1.938653    0.800150
      5          7           0        1.459171    1.390722   -0.010284
      6          1           0        2.353565    0.986209   -0.328836
      7          1           0        1.211299    2.171712   -0.638146
      8          8           0       -1.343486    1.541232   -0.027112
      9          1           0       -2.043735    1.442006   -0.710761
     10          1           0       -1.811530    1.695484    0.824048
     11          1           0        1.610394    1.782243    0.933301
     12          8           0       -1.607298   -1.344191   -0.001974
     13          1           0       -1.741368   -1.939563   -0.769279
     14          1           0       -1.803091   -1.864125    0.805997
 ---------------------------------------------------------------------

 SCF Done:  E(UPBE-PBE) =  -412.907646538     A.U. after    1 cycles

 The electronic state is 1-A.
 Alpha  occ. eigenvalues --  -19.19060 -19.18824 -19.17680 -14.40713  -3.70241
 Alpha  occ. eigenvalues --   -2.43369  -2.43206  -2.39075  -1.32438  -1.31991
 Alpha  occ. eigenvalues --   -1.31105  -1.17530  -0.87236  -0.86643  -0.86064
 Alpha  occ. eigenvalues --   -0.81562  -0.80713  -0.80394  -0.78726  -0.75538
 Alpha  occ. eigenvalues --   -0.71671  -0.68817  -0.66778  -0.64590  -0.59927
 Alpha  occ. eigenvalues --   -0.59754  -0.59011  -0.57442
 Alpha virt. eigenvalues --   -0.49067  -0.36653  -0.32239  -0.31276  -0.30745
 Alpha virt. eigenvalues --   -0.26045  -0.23645  -0.22278  -0.21575  -0.21054
 Alpha virt. eigenvalues --   -0.21003  -0.20444  -0.12435  -0.11191  -0.10423

  Beta  occ. eigenvalues --  -19.19060 -19.18824 -19.17680 -14.40713  -3.70241
  Beta  occ. eigenvalues --   -2.43369  -2.43206  -2.39075  -1.32438  -1.31991
  Beta  occ. eigenvalues --   -1.31105  -1.17530  -0.87236  -0.86643  -0.86064
  Beta  occ. eigenvalues --   -0.81562  -0.80713  -0.80394  -0.78726  -0.75538
  Beta  occ. eigenvalues --   -0.71671  -0.68817  -0.66778  -0.64590  -0.59927
  Beta  occ. eigenvalues --   -0.59754  -0.59011  -0.57442
  Beta virt. eigenvalues --   -0.49067  -0.36653  -0.32239  -0.31276  -0.30745
  Beta virt. eigenvalues --   -0.26045  -0.23645  -0.22278  -0.21575  -0.21054
  Beta virt. eigenvalues --   -0.21003  -0.20444  -0.12435  -0.11191  -0.10423

 Mulliken charges and spin densities:
               1          2
     1  Pd   0.563446   0.000000
     2  O   -0.516840   0.000000
     3  H    0.416163   0.000000
     4  H    0.416903   0.000000
     5  N   -0.659677   0.000000
     6  H    0.381095   0.000000
     7  H    0.386042   0.000000
     8  O   -0.499746   0.000000
     9  H    0.417966   0.000000
    10  H    0.416502   0.000000
    11  H    0.383005   0.000000
    12  O   -0.525373   0.000000
    13  H    0.409876   0.000000
    14  H    0.410640   0.000000
 Sum of Mulliken charges =   2.00000   0.00000

 Dipole moment (field-independent basis, Debye):
    X=             -0.1043    Y=             -1.5842    Z=              0.3824  Tot=              1.6330
 Quadrupole moment (field-independent basis, Debye-Ang):
   XX=             -9.8530   YY=             -6.6912   ZZ=            -32.9317
   XY=              0.5048   XZ=             -0.1665   YZ=              0.9592

  Exact polarizability:  56.403   2.394  56.498   0.045   0.340  38.942
 Approx polarizability:  94.777   6.388  94.421   0.281   0.606  70.725

                      1                      2                      3
                      A                      A                      A
 Frequencies --     51.9218                98.4073               135.3835
 Red. masses --      1.0292                 1.2091                 2.8685
 Frc consts  --      0.0016                 0.0069                 0.0310
 IR Inten    --      1.9156                30.5083                 0.1554

                      4                      5                      6
                      A                      A                      A
 Frequencies --    174.7364               190.5927               208.2794
 Red. masses --      4.8982                 2.6716                 3.8843
 Frc consts  --      0.0881                 0.0572                 0.0993
 IR Inten    --      0.0906                18.7515                15.7644

                      7                      8                      9
                      A                      A                      A
 Frequencies --    213.1976               223.8376               232.8701
 Red. masses --      1.3058                 2.3430                 1.1861
 Frc consts  --      0.0350                 0.0692                 0.0379
 IR Inten    --     24.1287                18.7197               102.7397

                     10                     11                     12
                      A                      A                      A
 Frequencies --    384.2487               407.6625               435.6618
 Red. masses --      5.4917                 7.0709                 2.3477
 Frc consts  --      0.4777                 0.6924                 0.2625
 IR Inten    --      1.6925                 0.1622               101.3729

                     13                     14                     15
                      A                      A                      A
 Frequencies --    466.3645               499.7262               589.1008
 Red. masses --      2.0429                 3.8019                 1.1375
 Frc consts  --      0.2618                 0.5594                 0.2326
 IR Inten    --    242.7451                62.0540                49.5777

                     16                     17                     18
                      A                      A                      A
 Frequencies --    642.6860               687.5370               722.3987
 Red. masses --      1.2065                 1.0992                 1.0719
 Frc consts  --      0.2936                 0.3061                 0.3296
 IR Inten    --    238.2629                 0.8745                 1.8231

                     19                     20                     21
                      A                      A                      A
 Frequencies --    775.4304               807.0522               818.7153
 Red. masses --      1.1124                 1.1699                 1.2004
 Frc consts  --      0.3941                 0.4489                 0.4741
 IR Inten    --      2.8715                38.2307                18.6916

                     22                     23                     24
                      A                      A                      A
 Frequencies --   1327.9973              1589.7496              1595.3927
 Red. masses --      1.1734                 1.0859                 1.0611
 Frc consts  --      1.2192                 1.6170                 1.5913
 IR Inten    --     57.3216                37.2904                30.6176

                     25                     26                     27
                      A                      A                      A
 Frequencies --   1599.1111              1605.6771              1609.4756
 Red. masses --      1.0784                 1.0782                 1.0601
 Frc consts  --      1.6248                 1.6378                 1.6180
 IR Inten    --     92.8336                87.4224                71.8133

                     28                     29                     30
                      A                      A                      A
 Frequencies --   3332.1814              3440.6654              3448.6679
 Red. masses --      1.0282                 1.0922                 1.0935
 Frc consts  --      6.7264                 7.6183                 7.6625
 IR Inten    --    118.1836               105.5035                97.8109

                     31                     32                     33
                      A                      A                      A
 Frequencies --   3586.2815              3606.1362              3625.6897
 Red. masses --      1.0438                 1.0435                 1.0436
 Frc consts  --      7.9095                 7.9950                 8.0831
 IR Inten    --    311.8562               137.5497               297.7291

                     34                     35                     36
                      A                      A                      A
 Frequencies --   3678.9442              3702.6828              3720.2723
 Red. masses --      1.0842                 1.0854                 1.0851
 Frc consts  --      8.6455                 8.7671                 8.8486
 IR Inten    --    206.5090               186.6723               288.1048

 - Thermochemistry -
 -------------------
 Temperature   298.150 Kelvin.  Pressure   1.00000 Atm.
 Atom     1 has atomic number 46 and mass 105.90320

 Molecular mass:   176.96144 amu.
 Principal axes and moments of inertia in atomic units:
                           1         2         3
     Eigenvalues --   567.51323 613.420041144.39559
           X            0.98574   0.16825  -0.00065
           Y           -0.16825   0.98574   0.00215
           Z            0.00100  -0.00201   1.00000
 This molecule is an asymmetric top.
 Rotational symmetry number  1.
 Warning -- assumption of classical behavior for rotation
           may cause significant error
 Rotational temperatures (Kelvin)      0.15262     0.14120     0.07569
 Rotational constants (GHZ):           3.18009     2.94210     1.57703
 Zero-point vibrational energy     300470.4 (Joules/Mol)
                                   71.81416 (Kcal/Mol)
 Warning -- explicit consideration of  15 degrees of freedom as
           vibrations may cause significant error
 Vibrational temperatures:     74.70   141.59   194.79   251.41   274.22
          (Kelvin)            299.67   306.74   322.05   335.05   552.85
                              586.54   626.82   670.99   718.99   847.58
                              924.68   989.21  1039.37  1115.67  1161.17
                             1177.95  1910.69  2287.30  2295.41  2300.76
                             2310.21  2315.68  4794.27  4950.35  4961.86
                             5159.86  5188.43  5216.56  5293.18  5327.33
                             5352.64

 Zero-point correction=                           0.114443 (Hartree/Particle)
 Thermal correction to Energy=                    0.124979
 Thermal correction to Enthalpy=                  0.125923
 Thermal correction to Gibbs Free Energy=         0.078979
 Sum of electronic and zero-point Energies=           -412.793203
 Sum of electronic and thermal Energies=              -412.782668
 Sum of electronic and thermal Enthalpies=            -412.781723
 Sum of electronic and thermal Free Energies=         -412.828668

                     E (Thermal)             CV                S
                      KCal/Mol        Cal/Mol-Kelvin    Cal/Mol-Kelvin
 Total                   78.425             35.690             98.802
 Electronic               0.000              0.000              0.000
 Translational            0.889              2.981             41.419
 Rotational               0.889              2.981             27.479
 Vibrational             76.648             29.729             29.904
 Vibration     1          0.596              1.977              4.743
 Vibration     2          0.604              1.950              3.486
 Vibration     3          0.613              1.918              2.868
 Vibration     4          0.627              1.874              2.384
 Vibration     5          0.634              1.853              2.222
 Vibration     6          0.642              1.828              2.059
 Vibration     7          0.644              1.821              2.016
 Vibration     8          0.649              1.805              1.928
 Vibration     9          0.654              1.791              1.857
 Vibration    10          0.753              1.504              1.022
 Vibration    11          0.772              1.454              0.935
 Vibration    12          0.796              1.392              0.840
 Vibration    13          0.824              1.325              0.748
 Vibration    14          0.855              1.251              0.659
 Vibration    15          0.946              1.055              0.469

                           ! Non-Optimized Parameters !
 Normal termination of Gaussian 16 at Fri Aug 16 18:09:54 2024.
